78
 energy: -116.058078058975 gnorm: 0.000074226959 xtb: 6.7.1 (edcfbbe)
Fe          28.25432166032457       91.16597030357077       52.37723093497991
N           29.24560330090473       92.81221656720713       51.77605689384520
N           29.37015011975114       91.12510456421627       54.05650189982421
N           27.23802844248014       89.57187654038637       53.00954532219637
N           27.12316655655402       91.25601828371190       50.74066303506595
C           29.07136108370591       93.48857921545911       50.60944584288889
C           30.00215724595114       94.58966088233808       50.51273622732939
C           30.74876740571123       94.56192861213140       51.64999702560851
C           30.26597612196702       93.44121256720896       52.42457239446051
C           30.37358714060112       91.98249271602599       54.39986075123502
C           30.97363264733541       91.59486044590645       55.64877788504015
C           30.31793743253701       90.46172973264052       56.05612487174426
C           29.31455114831892       90.19452261719320       55.04561370957225
C           27.45941383100938       88.85932892389543       54.14742059385708
C           26.53746836632609       87.75542029956453       54.24975326947561
C           25.74502363103673       87.81322370440688       53.13507335974819
C           26.20339204333620       88.96399796594977       52.37933794574003
C           26.10750056725787       90.41880706248506       50.40830389875740
C           25.53141912498788       90.79091958615008       49.13324721556743
C           26.22933366137185       91.87433768877546       48.70276420989561
C           27.22040386466791       92.14910775999846       49.72177929139611
C           28.12778361025756       93.18775391410918       49.64501735689284
H           28.09627350702235       93.81508155011278       48.76747298798036
C           30.78959870608809       93.06969345617141       53.64787831632668
H           31.60522470057154       93.66014857725304       54.03657523301892
C           28.43453668761391       89.13084840447962       55.09006714642400
H           28.51518793868954       88.45478687695186       55.92730256188679
C           25.67117919410102       89.34655996536135       51.16205890765408
H           24.85562449303765       88.76081457407804       50.76599679840425
C           31.85297506084940       95.46729927449785       52.07789081664966
H           32.03076380437176       96.23852812635894       51.33259575295452
H           32.77802245214223       94.90719492854228       52.21848040039621
H           31.60699141093188       95.95405617489810       53.02212428134550
C           30.07028715919475       95.53368418978400       49.36176314271789
H           29.12171646998577       96.05688246271372       49.23865691121105
H           30.28091759190101       94.99545191905028       48.43742572495533
H           30.85214110350562       96.27395910933819       49.51311663276764
C           32.04470699985887       92.34927927839976       56.35707014379506
H           31.90431739755156       93.42276610472273       56.23851657297188
H           33.03001023330816       92.09273904417718       55.96366018459187
H           32.02777531073377       92.11143181765537       57.41876685338650
C           30.51402717499779       89.67385846147376       57.25251930786904
H           29.62156326805989       89.21510739374682       57.66207483896460
C           31.67755034744716       89.47160365367704       57.86241078535294
H           32.60339137900011       89.86103923141319       57.47641277156696
H           31.74662832035145       88.88212771126909       58.76158565936479
C           26.45103370990910       86.81373831243802       55.39973974751550
H           26.60783781268599       87.33925680752760       56.34058725117143
H           27.20728459089781       86.03090187574188       55.32030904624357
H           25.47015037081835       86.34351087818675       55.42376344612305
C           24.64499732182503       86.95783429684309       52.74797988748073
H           23.83582845372027       87.44743215311547       52.21859411472585
C           24.56395109696798       85.65211808695210       52.98273802095954
H           25.35777215185273       85.10583766401906       53.46176132959383
H           23.70529152464978       85.07691889228643       52.67807152641746
C           24.39311523089289       90.07990152766644       48.48574591691398
H           23.51123716759029       90.10947925199102       49.12587879060470
H           24.64508638600125       89.03448344777360       48.30552584230356
H           24.14027292090090       90.54019887999911       47.53374548869065
C           26.06406945707059       92.67063843609088       47.45392549095119
H           25.82893029144397       93.70876403898541       47.68977117043003
H           25.26000782375183       92.26854002157302       46.84254283038858
H           26.98215032343713       92.65700372360240       46.86594184549531
O           26.85514902702346       92.59048600032624       53.50684666801769
H           27.16786337185748       93.43119948334315       53.15525441577372
H           27.21584274492285       92.50375039452132       54.39595830930634
C           30.75762929395160       87.19495215047431       49.37114339769570
H           31.36936829515968       86.46474322039936       49.90071895704303
H           31.28949350634706       87.49432932801459       48.46805148118508
H           29.82292764172009       86.72343015437320       49.08456497934927
N           31.47079084522896       89.15725223963589       50.75397511863645
H           32.45916015164445       89.02489770924532       50.61550242955899
C           30.47678325048455       88.37112254765348       50.23269429030825
C           30.88237985796959       90.13083093490344       51.48447097514145
H           31.41852102390676       90.89356307163430       52.01017741734861
N           29.57750099814171       90.00932684548843       51.45713240672099
C           29.30963505700124       88.91921667914990       50.68199311030028
H           28.30254858252476       88.60432870657796       50.50164762992949
