77
 energy: -118.908080445823 gnorm: 0.256582471423 xtb: 6.7.1 (edcfbbe)
Fe          28.07100000000000       31.63500000000000       10.15500000000000
N           26.23300000000000       32.48000000000000       10.38100000000000
N           28.84900000000000       32.92500000000000       11.51500000000000
N           29.90500000000000       30.74900000000000        9.95900000000000
N           27.30800000000000       30.35100000000000        8.78800000000000
C           25.07999999999999       32.17100000000000        9.71200000000000
C           24.00500000000000       33.05400000000000       10.13400000000000
C           24.54500000000000       33.90600000000000       11.01600000000000
C           25.95100000000000       33.60200000000000       11.15300000000000
C           28.14700000000000       33.90600000000000       12.21200000000000
C           29.05700000000000       34.55399999999999       13.11300000000000
C           30.26100000000000       33.98600000000000       12.97500000000000
C           30.13900000000000       32.91400000000000       11.99700000000000
C           31.06500000000000       31.11199999999999       10.62100000000000
C           32.14000000000000       30.24900000000000       10.18400000000000
C           31.66400000000000       29.48600000000000        9.19500000000000
C           30.25100000000000       29.77600000000000        9.04900000000000
C           28.05000000000000       29.41100000000000        8.06200000000000
C           27.18000000000000       28.76000000000000        7.13400000000000
C           25.83800000000000       29.40900000000000        7.27200000000000
C           25.98800000000000       30.38100000000000        8.33000000000000
C           24.95600000000000       31.17100000000000        8.78700000000000
H           23.96200000000000       30.98400000000000        8.37900000000000
C           26.83900000000000       34.27300000000000       11.97600000000000
H           26.47300000000000       35.16699999999999       12.48000000000000
C           31.17900000000000       32.10300000000000       11.56900000000000
H           32.16000000000000       32.26200000000000       12.01700000000000
C           29.36900000000000       29.10100000000000        8.24400000000000
H           29.75500000000000       28.23900000000000        7.70000000000000
C           23.86200000000000       35.07700000000000       11.74000000000000
H           22.76500000000000       35.03000000000000       11.56900000000000
H           24.24800000000000       36.04000000000000       11.34300000000000
H           24.05900000000000       35.00999999999999       12.83100000000000
C           22.52700000000000       32.94700000000000        9.67700000000000
H           22.01500000000000       32.15300000000000       10.26100000000000
H           22.48600000000000       32.68500000000000        8.59800000000000
H           22.00900000000000       33.91399999999999        9.85300000000000
C           28.65900000000000       35.72500000000000       14.02800000000000
H           27.58599999999999       35.63500000000000       14.30000000000000
H           28.81600000000000       36.68699999999999       13.49600000000000
H           29.26900000000000       35.70000000000000       14.95600000000000
C           31.52300000000000       34.24800000000000       13.83100000000000
H           32.12500000000000       33.40400000000000       14.19800000000000
C           31.91500000000000       35.48400000000000       14.14600000000000
H           31.34200000000000       36.35699999999999       13.80000000000000
H           32.81600000000000       35.64600000000000       14.75600000000000
C           33.58800000000000       30.28200000000000       10.72800000000000
H           33.63300000000000       29.73800000000000       11.69600000000000
H           33.90400000000000       31.33500000000000       10.89100000000000
H           34.27199999999999       29.78800000000000       10.00500000000000
C           32.42700000000000       28.34300000000000        8.49500000000000
H           33.17800000000000       27.76500000000000        9.05400000000000
C           32.21600000000000       28.01800000000000        7.22600000000000
H           31.47500000000000       28.56600000000000        6.62500000000000
H           32.77900000000000       27.19600000000000        6.75900000000000
C           27.57500000000000       27.72500000000000        6.08100000000000
H           28.02700000000000       26.84200000000000        6.58100000000000
H           28.31900000000000       28.16500000000000        5.38300000000000
H           26.67400000000000       27.39900000000000        5.51900000000000
C           24.56700000000000       29.14300000000000        6.45200000000000
H           23.88800000000000       28.47600000000000        7.02600000000000
H           24.83500000000000       28.64700000000000        5.49500000000000
H           24.04300000000000       30.10200000000000        6.25000000000000
O           28.45300000000000       32.90000000000000        8.69300000000000
O           29.54100000000000       33.43500000000000        8.88000000000000
C           27.45499999999999       26.96900000000000       13.25500000000000
H           26.48200000000000       26.46200000000000       13.08300000000000
H           27.66100000000000       26.99299999999999       14.34600000000000
H           28.25400000000000       26.40300000000000       12.73000000000000
N           26.48000000000000       29.30200000000000       13.18300000000000
H           25.81800000000000       29.14100000000000       13.91400000000000
C           27.39200000000000       28.36500000000000       12.72200000000000
C           26.63500000000000       30.42800000000000       12.49900000000000
H           26.07400000000000       31.34400000000000       12.68100000000000
N           27.57100000000000       30.23400000000000       11.58200000000000
C           28.06600000000000       28.95600000000000       11.70800000000000
H           28.85300000000000       28.58900000000000       11.06100000000000
77
 energy: -118.966308277072 gnorm: 0.119401219786 xtb: 6.7.1 (edcfbbe)
Fe          28.07896846056152       31.66258345328757       10.11828307858999
N           26.23415105753419       32.49827263658278       10.37242804978308
N           28.84388887679620       32.90590856799039       11.54289413490554
N           29.91789978582995       30.75910113931106        9.94393629067966
N           27.30545555952162       30.36204312142197        8.78095279922716
C           25.08152581058894       32.16516626208334        9.72232923693776
C           23.99860739183896       33.04734381058129       10.13410915920146
C           24.54215838463772       33.92317918112407       11.01490974203963
C           25.94623572988154       33.59376127561330       11.15253349024960
C           28.16604416337477       33.91081008259820       12.19717879352525
C           29.06097173163725       34.56936833221954       13.11937527532046
C           30.27698537627295       33.97312226233208       13.00322751925908
C           30.13309257700368       32.92295824208426       12.00189940205540
C           31.06193160370938       31.10193894485298       10.61879924383530
C           32.15430062701105       30.25235536940517       10.18323269382359
C           31.66491909554074       29.44550653426423        9.20499386564887
C           30.25068626169834       29.76474270557698        9.06388033544790
C           28.00830154073321       29.41295103326204        8.06855140835802
C           27.13853613974583       28.77918473902230        7.11808620359809
C           25.86913453496540       29.39010643427330        7.26041764536197
C           26.00938507712138       30.35737397111957        8.31997062140497
C           24.96940436703312       31.15465659608618        8.78783543648573
H           23.98205842152019       30.98146086542010        8.37139603078712
C           26.84322857911154       34.26276693367505       11.97182710965257
H           26.47426742998471       35.14805794518556       12.48003475929472
C           31.16610723356158       32.10140689673227       11.57187639520998
H           32.14346212799285       32.26301639447183       12.01465291167579
C           29.35010297410535       29.10090093207672        8.24833664769825
H           29.73782113286079       28.25256558361491        7.69418754851312
C           23.86649136005206       35.06735242181625       11.73424175848222
H           22.78452179031549       35.03158768765169       11.57356356092094
H           24.24354661082290       36.02310418725351       11.35356569894118
H           24.05771760895895       35.01368021430837       12.81165824110884
C           22.55186300641944       32.94510048212242        9.68228364071848
H           22.03023210645196       32.16508070303675       10.25107039101625
H           22.49223596370383       32.69275813959682        8.61896267757545
H           22.02792067121787       33.89281154748378        9.84586524552886
C           28.66016181393148       35.71295177241517       14.02239085406968
H           27.60287791527452       35.63614971714060       14.29632951791130
H           28.81422944515082       36.66835464647330       13.50762779696183
H           29.26166913032589       35.70116530056773       14.93733497496722
C           31.50691400769289       34.25222108149229       13.81245153253484
H           32.09297970682661       33.40475170166481       14.16769269255515
C           31.90321291287684       35.47723105140118       14.14013678782917
H           31.35874234273247       36.35009716673360       13.80209272923872
H           32.79257361231052       35.64244257643211       14.74285729791186
C           33.57032485305420       30.28553239793236       10.72243413867289
H           33.62609762688113       29.75132722897445       11.67971844868563
H           33.89840844612889       31.31714760769411       10.88309604042005
H           34.25360119884305       29.80110549536833       10.01774884467077
C           32.40701960655451       28.35682546965488        8.49722515137918
H           33.15561903677753       27.80286764929814        9.06472606251083
C           32.20935447162275       28.02368718060471        7.22841544812482
H           31.49780801612394       28.56173821288919        6.61454887754301
H           32.76535101903405       27.21344219629784        6.76499532886736
C           27.55786739098127       27.74373022895428        6.10009618219920
H           28.01297412874353       26.86575459862037        6.57870881055777
H           28.29724694533532       28.16081545063347        5.40311009078387
H           26.68997617820688       27.40548141920954        5.52679692679651
C           24.60181715319528       29.13934677196839        6.46843547470645
H           23.90987910662340       28.48679399110360        7.01975113262744
H           24.83366833680403       28.65684665277400        5.51377623339173
H           24.07249829752951       30.07809052718160        6.25833434919828
O           28.45017341512566       32.87784149272625        8.72957079673526
O           29.56552351425091       33.45378868673546        8.85907703136500
C           27.44986399760126       26.97100717385517       13.25640217105746
H           26.49503307017313       26.45918385874591       13.09070872890764
H           27.65880505679197       26.98333227865951       14.33222110700738
H           28.23900067018330       26.41483218626030       12.74280378920036
N           26.48564017412621       29.28926507196193       13.19164796808901
H           25.81894767900545       29.13091436795498       13.92667974994026
C           27.38084004858763       28.35731085283257       12.71974202829388
C           26.64713971528313       30.42110140886061       12.49025448865821
H           26.08855152639388       31.32584720785732       12.66804202022061
N           27.58864232998827       30.25728271695469       11.58352320990821
C           28.05478395511503       28.97321393007410       11.70956969189234
H           28.83702097769560       28.60509504350236       11.07057845074646
77
 energy: -118.986663799488 gnorm: 0.049726579936 xtb: 6.7.1 (edcfbbe)
Fe          28.10000052021837       31.70027510978980       10.07907856503138
N           26.23944323400872       32.51465561428944       10.36269314969249
N           28.84652741917713       32.90641406923493       11.55436814751006
N           29.92788636960013       30.76237575060864        9.93287304857907
N           27.30659257872145       30.37572442947847        8.77067260765643
C           25.08980345902727       32.16285973466029        9.72627550347217
C           24.00065860033508       33.03645099229202       10.13633623554074
C           24.54423518232010       33.93073759896390       11.01545228058063
C           25.94854635727667       33.58883940477702       11.14386794347260
C           28.18125883771275       33.90997924901843       12.18455425577329
C           29.06294911014360       34.58451274012537       13.11542837230941
C           30.28621565991761       33.96536279609065       13.01843975728340
C           30.12444256920023       32.92137585366795       12.01294976856029
C           31.05710582781829       31.09736674704841       10.60910093951425
C           32.15703153787292       30.25272694733323       10.18311672505136
C           31.65787887718657       29.41321303677745        9.21421278111498
C           30.24625542349592       29.75903993110419        9.07386625155088
C           27.98356468929223       29.42607649274205        8.07197960990702
C           27.10465263502109       28.79592171540127        7.10912675812694
C           25.89697051864114       29.37425781469141        7.25175286475720
C           26.02912405311847       30.34924608680657        8.31200393647759
C           24.98638681311160       31.14694823147093        8.78607658614402
H           24.00447198019394       30.97990224872657        8.36571571347955
C           26.84832236840667       34.25011146940325       11.96946784915225
H           26.47590146597876       35.12499318132169       12.48531453219961
C           31.15085450408590       32.09443070989221       11.57613563938611
H           32.12585800182499       32.25892947193562       12.01384587011777
C           29.33431945393824       29.10935722157841        8.24746039377101
H           29.71810882750268       28.26959248773512        7.68627046012231
C           23.87394199225152       35.05597153063919       11.72679283167415
H           22.80037033007751       35.02720850797994       11.57240015885878
H           24.24528966298123       36.01077668363938       11.35985734516162
H           24.06257914530642       35.01051306031021       12.79687146508606
C           22.58054335436280       32.94093913914298        9.68747819294306
H           22.05064952392365       32.16753436471599       10.24466317235470
H           22.51142969244419       32.69652171455039        8.63184956354296
H           22.05553475172082       33.87923039024641        9.84583619075708
C           28.66297616493833       35.70204290604876       14.01351595680032
H           27.61575207166079       35.62920716182623       14.29198512678940
H           28.81076719203988       36.65771473860919       13.51311543293409
H           29.26422454063710       35.69780973745522       14.91881298140495
C           31.47974156104924       34.24938751789439       13.79255184903548
H           32.06139012354840       33.39629467789708       14.12451797244870
C           31.88664145540010       35.46719725491084       14.13282656982650
H           31.36872866271769       36.34729662109165       13.80215926237707
H           32.77031858448194       35.63097651086210       14.72743876296498
C           33.54855863361721       30.28903450412450       10.71445937563799
H           33.61116490019996       29.76297930036348       11.66783321111249
H           33.88486288124096       31.30876182358851       10.87411030170863
H           34.23412555376749       29.81008925095544       10.02185855859151
C           32.37761323225774       28.37220871800426        8.50686208457992
H           33.12960598094024       27.84227020418496        9.08243126461318
C           32.20238991983533       28.03426489202261        7.23345115721472
H           31.51198149624966       28.56016824490712        6.60212975429960
H           32.75991003884032       27.23509552084686        6.77502575913829
C           27.54021440913822       27.76156850200515        6.11848404771162
H           27.99701458318268       26.89568915574278        6.59816258042514
H           28.27798922945779       28.17167771166964        5.42757661091447
H           26.69346027798244       27.41249908264346        5.53607406174077
C           24.63464776201080       29.13556192360724        6.48140865166125
H           23.94168007075549       28.49419191532539        7.02940259174146
H           24.84604367629085       28.65783986117437        5.52932184257388
H           24.11194604954908       30.06810178879548        6.27170687581998
O           28.43594926628409       32.82464701996327        8.79654192100264
O           29.56260946052016       33.45173841040749        8.84133355729000
C           27.44679323411379       26.97178863045212       13.25428013615392
H           26.50291888372767       26.45475457878698       13.09627518091587
H           27.65722037873331       26.98153774045840       14.32117841385000
H           28.23173943454205       26.42289063915382       12.74867545222433
N           26.48847925164083       29.28030421894632       13.19844300894944
H           25.82009762283841       29.12654262498022       13.93682181522426
C           27.37123808538938       28.35194903461289       12.71596658305002
C           26.65766497074103       30.41661423946586       12.48827232474750
H           26.10075737520052       31.31345699270170       12.66219969978395
N           27.59105664270426       30.26950955727893       11.58186541223684
C           28.04679397837317       28.98852923729822       11.71278832675898
H           28.82422703518496       28.61543502074709       11.07895005703252
77
 energy: -118.990315181055 gnorm: 0.023968766319 xtb: 6.7.1 (edcfbbe)
Fe          28.10684255740070       31.71290466738897       10.06728574999240
N           26.25135174931872       32.52865978930765       10.34825707928476
N           28.84049888198502       32.90306102433150       11.55450595292247
N           29.92009156545092       30.76876753806145        9.92582622261808
N           27.31246002533336       30.39391024965561        8.75431353425474
C           25.10179986204618       32.16882869527709        9.72073580249372
C           24.01433553012149       33.03416057230901       10.13621236494206
C           24.55316809531897       33.92995387051052       11.01436068900547
C           25.95659527622824       33.59421442181504       11.13566302480780
C           28.18047707178733       33.91115152509821       12.17654246780384
C           29.05817800697461       34.58562387302192       13.10647066217182
C           30.27749992572987       33.96145975512613       13.01034582751810
C           30.11477605033130       32.91346829989346       12.01440415888574
C           31.04499651237242       31.09705661750469       10.60818050379731
C           32.14032317665424       30.25146650447325       10.18784350913394
C           31.64048274714445       29.41167682358617        9.22095557648451
C           30.23513493704312       29.76175596259098        9.07536244958606
C           27.98879045678089       29.43951007914702        8.06606243819971
C           27.11122146230022       28.80030072708690        7.10639514057126
C           25.89345441561840       29.38164513617012        7.25380636572923
C           26.03283776437837       30.36429441476337        8.30760173669277
C           24.99405153073877       31.15411208103387        8.78303046351998
H           24.01431548901343       30.98456098700083        8.36176571802409
C           26.84961733838256       34.25049897867810       11.96764770709717
H           26.47127135838851       35.11075860597082       12.50139112729497
C           31.13848728059900       32.08695922979933       11.57979470565886
H           32.11131077858624       32.24728642761303       12.02146725410323
C           29.32985604122320       29.11601227804480        8.24325887478227
H           29.70951602602427       28.28121940757886        7.67395907731497
C           23.88198692390170       35.05125370341320       11.72687171701557
H           22.80807498144882       35.02149173428053       11.57084735593851
H           24.25435879247955       36.00795231499560       11.36359336866727
H           24.07165249316786       35.00317969300171       12.79723223409534
C           22.59948323115320       32.93302686463275        9.68549066240313
H           22.07144510935997       32.15496299350480       10.23862830916601
H           22.53825589939484       32.69395447660107        8.62771783819654
H           22.07781388517916       33.87239555049725        9.84748044774267
C           28.66397634770583       35.69988978053379       14.00747700441558
H           27.61898248242379       35.62102045730265       14.29545199404668
H           28.80389606449281       36.65947632951993       13.51067952064648
H           29.27700748759515       35.69372793226946       14.90585112236241
C           31.47392921950355       34.24205947211886       13.77038242692901
H           32.05708068792404       33.38127082380968       14.07918749745912
C           31.88092481981641       35.45667863677588       14.12351437516444
H           31.36768797198047       36.34397912971817       13.80070901067639
H           32.76370114764843       35.61220129665102       14.71932658183233
C           33.53169246676027       30.29495430591155       10.71245063913941
H           33.59543443145264       29.77484329208778       11.66963567974960
H           33.86504374448584       31.31772971147366       10.86378657867325
H           34.21568170365822       29.81403717773899       10.01893234567229
C           32.36103399047693       28.37939857812479        8.51122327683933
H           33.11438113378635       27.86150105547460        9.09530277002904
C           32.20037684621014       28.04279154495786        7.23507611496157
H           31.52656285460696       28.57369782477601        6.58626540674340
H           32.77224935067503       27.25193962592311        6.78122146463867
C           27.54036110711773       27.76244693912709        6.12696057104658
H           27.99270131068936       26.90757337029723        6.62684785864695
H           28.27768750537930       28.17722035757336        5.44037407903885
H           26.69337471467511       27.41053434789666        5.54572397917289
C           24.63918381747975       29.13320300006667        6.48833047333449
H           23.95593947735047       28.49567907005078        7.05021710041898
H           24.85618024499794       28.64792935774600        5.54138055849933
H           24.12989305839618       30.07057788679644        6.27690119323543
O           28.43219487938419       32.79787678302853        8.82119499968759
O           29.55714400589343       33.42568423587928        8.85326247527371
C           27.44537276427331       26.96926436969978       13.25401204948924
H           26.50367863747285       26.44483106564102       13.10111826582410
H           27.65956032878011       26.97982275752826       14.32080508997045
H           28.23258078292949       26.42428878085092       12.74660678731822
N           26.48700260885447       29.27811571053542       13.20782003397038
H           25.82255467472081       29.12510804058404       13.94978269063444
C           27.36529093966267       28.34940261738144       12.71657558794971
C           26.65706378876903       30.41599283207735       12.49962201749315
H           26.09973666267243       31.31220609383629       12.67165520252304
N           27.58893791030729       30.27142195912827       11.59314596555950
C           28.03950463434088       28.98978749947896       11.71513740368818
H           28.81460016529060       28.61634007586254       11.07974368932920
77
 energy: -118.991782999793 gnorm: 0.010979438844 xtb: 6.7.1 (edcfbbe)
Fe          28.10966658180749       31.72089384429617       10.06362005649850
N           26.26480498366890       32.53953954081358       10.33656337754590
N           28.83352496787365       32.90603159375223       11.54498099041558
N           29.90542452035637       30.77542373690759        9.92004696270654
N           27.32014783311159       30.41115492740130        8.74460401110795
C           25.11642750361964       32.17837776986476        9.71076539508447
C           24.02930440282885       33.03414149970033       10.13333256796700
C           24.56196399106317       33.92764285688750       11.01286912092733
C           25.96465199921787       33.60023105338753       11.12984475310652
C           28.17687184856312       33.91409305497466       12.17026727151039
C           29.05511253511359       34.58784025754060       13.09464184936513
C           30.26879212791754       33.96034090377419       12.99749072969317
C           30.10555565508080       32.90930964053604       12.00945993906532
C           31.02939578863713       31.09736049436390       10.60842713948682
C           32.11990283682609       30.25097375831934       10.19268672107417
C           31.62292023110646       29.41856101059364        9.22348719707550
C           30.22381411755681       29.77109447551898        9.06987249774360
C           27.99712091715102       29.45727935322839        8.05656152082289
C           27.11760539928161       28.80668309821537        7.10910624389638
C           25.89444785634031       29.39295092127665        7.25548814197699
C           26.03900890309079       30.38313773307885        8.30129819039965
C           25.00300101883882       31.16722580282627        8.77379669212208
H           24.02360325023691       30.99190199418819        8.35466252792355
C           26.84838111478737       34.25295544265250       11.96998726106547
H           26.46534119560018       35.10114740769780       12.51858778679513
C           31.12591808041284       32.07936733307637       11.58285559262053
H           32.09636151061883       32.23005286990212       12.03271822674397
C           29.32921788023643       29.12844563552694        8.22963315820793
H           29.70537326575610       28.29594703448735        7.65526802551293
C           23.88964169576816       35.04737192256782       11.72985886084970
H           22.81466306685537       35.01756276231892       11.57041528412558
H           24.26535013132821       36.00616899560000       11.37057406920138
H           24.07861492157243       34.99247077128435       12.80163589943624
C           22.61477969762081       32.92515168736202        9.67797704107409
H           22.09266751300193       32.13710298139682       10.22439407479156
H           22.56424311342519       32.69246664410519        8.61663044732737
H           22.08867988864489       33.86217560272596        9.84654621676028
C           28.66613067270123       35.70140018936668       14.00136065309210
H           27.62411497206298       35.61275477749744       14.30451252746311
H           28.79235268643716       36.66458184620303       13.50454115975619
H           29.29463721008634       35.69391564814635       14.89132286810907
C           31.47458193617480       34.23213613234373       13.75109959898786
H           32.06371246180473       33.36465216469458       14.03222545844905
C           31.88134190521100       35.44334493898742       14.11637506318376
H           31.35968559987625       36.33551056660976       13.81486805260968
H           32.77420273576608       35.58942845764854       14.70088066429405
C           33.51451172910338       30.30242672632113       10.71397544212872
H           33.58144128524724       29.79157322848974       11.67742520864705
H           33.84109316769523       31.33108765579269       10.85267616252916
H           34.19716379480827       29.81754509230337       10.01975405036912
C           32.35345268398749       28.38912815797224        8.51185483262919
H           33.09521791360508       27.86694435327249        9.10683508471087
C           32.21228986737446       28.06344216899037        7.23102552027255
H           31.53187270414744       28.58198703673913        6.57776244141690
H           32.78955187415328       27.27056909081115        6.78543238817241
C           27.54153442311495       27.76021717623470        6.13934019623578
H           27.98944834038881       26.91209620136050        6.65536205454383
H           28.28162109171200       28.16942506456234        5.45147629829479
H           26.69361470381770       27.40338191518986        5.56007885258236
C           24.64094615996230       29.13116617327729        6.49560611845094
H           23.96192761465209       28.50046565917828        7.07111102471978
H           24.86010801523062       28.63002409815201        5.55579983758893
H           24.13449752672907       30.06770851548941        6.27279722059961
O           28.43889800426842       32.79491408817594        8.83303281358572
O           29.56581750196947       33.40832204282187        8.85549813594798
C           27.44376865885154       26.96210028187329       13.25715388601041
H           26.50317917050396       26.43125428895082       13.10802501484965
H           27.66287176168120       26.97439267792857       14.32468518914041
H           28.23344971856416       26.42166083857875       12.74448350851741
N           26.48142143278898       29.27257275772119       13.22222165419682
H           25.82415649270689       29.12021421743917       13.96987684926964